 ------------------------------------------------------------------
 #P ub3lyp def2tzvp pop=orbitals=20 integral=superfinegrid opt freq
 ------------------------------------------------------------------

 -----
 title
 -----
 Symbolic Z-matrix:
 Charge =  0 Multiplicity = 1

 SCF Done:  E(UB3LYP) =  -157.170605226     A.U. after   12 cycles
 SCF Done:  E(UB3LYP) =  -157.237111902     A.U. after   11 cycles
 SCF Done:  E(UB3LYP) =  -157.254574756     A.U. after   11 cycles
 SCF Done:  E(UB3LYP) =  -157.275634740     A.U. after   11 cycles
 SCF Done:  E(UB3LYP) =  -157.283194531     A.U. after   11 cycles
 SCF Done:  E(UB3LYP) =  -157.284334793     A.U. after   10 cycles
 SCF Done:  E(UB3LYP) =  -157.284783278     A.U. after   10 cycles
 SCF Done:  E(UB3LYP) =  -157.284912923     A.U. after    9 cycles
 SCF Done:  E(UB3LYP) =  -157.284922026     A.U. after    8 cycles
 SCF Done:  E(UB3LYP) =  -157.284922791     A.U. after    7 cycles
 Optimization completed.
    -- Stationary point found.
 Normal termination of Gaussian DV at Mon May  4 17:00:56 2020.

 --------------------------------------------------------------------
 #P Geom=AllCheck Guess=TCheck SCRF=Check GenChk UB3LYP/def2TZVP Freq
 --------------------------------------------------------------------

 Structure from the checkpoint file:  "butene.chk"
 -----
 title
 -----
 Charge =  0 Multiplicity = 1

                         Standard orientation:
 ---------------------------------------------------------------------
 Center     Atomic      Atomic             Coordinates (Angstroms)
 Number     Number       Type             X           Y           Z
 ---------------------------------------------------------------------
      1          6           0       -1.533298   -0.585317    0.000085
      2          1           0       -2.615845   -0.592253   -0.000153
      3          1           0       -1.044199   -1.551568    0.000578
      4          6           0       -0.854388    0.555735   -0.000195
      5          1           0       -1.413132    1.488828   -0.000621
      6          6           0        0.638989    0.717690    0.000187
      7          1           0        0.916092    1.328061   -0.867841
      8          1           0        0.915668    1.327277    0.869142
      9          6           0        1.454575   -0.570901   -0.000134
     10          1           0        2.522641   -0.347595   -0.000814
     11          1           0        1.242166   -1.177914    0.882272
     12          1           0        1.241343   -1.178078   -0.882223
 ---------------------------------------------------------------------

 SCF Done:  E(UB3LYP) =  -157.284922791     A.U. after    1 cycles

 The electronic state is 1-A.
 Alpha  occ. eigenvalues --  -10.17468 -10.17358 -10.16134 -10.15916  -0.80288
 Alpha  occ. eigenvalues --   -0.72658  -0.64193  -0.53966  -0.47760  -0.45122
 Alpha  occ. eigenvalues --   -0.42665  -0.39265  -0.35844  -0.35352  -0.33823
 Alpha  occ. eigenvalues --   -0.26136
 Alpha virt. eigenvalues --    0.00983   0.03833   0.06030   0.08381   0.09708
 Alpha virt. eigenvalues --    0.10896   0.11690   0.12571   0.13432   0.17380
 Alpha virt. eigenvalues --    0.18226   0.20645   0.21662   0.22757   0.23272

  Beta  occ. eigenvalues --  -10.17468 -10.17358 -10.16134 -10.15916  -0.80288
  Beta  occ. eigenvalues --   -0.72658  -0.64193  -0.53966  -0.47760  -0.45122
  Beta  occ. eigenvalues --   -0.42665  -0.39265  -0.35844  -0.35352  -0.33823
  Beta  occ. eigenvalues --   -0.26136
  Beta virt. eigenvalues --    0.00983   0.03833   0.06030   0.08381   0.09708
  Beta virt. eigenvalues --    0.10896   0.11690   0.12571   0.13432   0.17380
  Beta virt. eigenvalues --    0.18226   0.20645   0.21662   0.22757   0.23272

 Mulliken charges and spin densities:
               1          2
     1  C   -0.269636  -0.000000
     2  H    0.108424   0.000000
     3  H    0.110203   0.000000
     4  C   -0.109077   0.000000
     5  H    0.097900  -0.000000
     6  C   -0.101256  -0.000000
     7  H    0.093735  -0.000000
     8  H    0.093722   0.000000
     9  C   -0.362331   0.000000
    10  H    0.113366  -0.000000
    11  H    0.112469  -0.000000
    12  H    0.112481  -0.000000
 Sum of Mulliken charges =   0.00000   0.00000

 Dipole moment (field-independent basis, Debye):
    X=              0.3936    Y=              0.2941    Z=              0.0001  Tot=              0.4913
 Quadrupole moment (field-independent basis, Debye-Ang):
   XX=            -26.5467   YY=            -25.9859   ZZ=            -28.5238
   XY=              0.1190   XZ=              0.0001   YZ=             -0.0013

  Exact polarizability:      56.439       5.197      53.563       0.001      -0.001      38.393
 Approx polarizability:      71.211      11.818      79.809       0.000      -0.002      55.981

                      1                      2                      3
                      A                      A                      A
 Frequencies --    160.7791               260.8750               275.8123
 Red. masses --      1.4979                 1.0847                 2.5990
 Frc consts  --      0.0228                 0.0435                 0.1165
 IR Inten    --      0.0988                 0.0005                 0.2973

                      4                      5                      6
                      A                      A                      A
 Frequencies --    547.9945               564.5694               806.4974
 Red. masses --      2.2039                 1.1915                 1.1937
 Frc consts  --      0.3899                 0.2238                 0.4574
 IR Inten    --      0.0575                12.8632                 0.0185

                      7                      8                      9
                      A                      A                      A
 Frequencies --    838.6961               945.8515              1000.2491
 Red. masses --      2.6244                 1.3359                 1.7597
 Frc consts  --      1.0877                 0.7042                 1.0373
 IR Inten    --      2.8572                46.1553                 0.2154

                     10                     11                     12
                      A                      A                      A
 Frequencies --   1034.5810              1037.2814              1110.6164
 Red. masses --      1.3749                 1.0701                 1.5960
 Frc consts  --      0.8671                 0.6784                 1.1599
 IR Inten    --      0.6519                10.8188                 3.1706

                     13                     14                     15
                      A                      A                      A
 Frequencies --   1147.7869              1293.8752              1336.1760
 Red. masses --      1.8522                 1.1516                 1.2759
 Frc consts  --      1.4377                 1.1359                 1.3422
 IR Inten    --      4.1028                 0.5751                 0.1906

                     16                     17                     18
                      A                      A                      A
 Frequencies --   1382.2391              1412.5552              1456.8522
 Red. masses --      1.5609                 1.2672                 1.1824
 Frc consts  --      1.7571                 1.4897                 1.4786
 IR Inten    --      2.8185                 3.1208                 1.8745

                     19                     20                     21
                      A                      A                      A
 Frequencies --   1476.3205              1498.8830              1509.1160
 Red. masses --      1.0762                 1.0391                 1.0586
 Frc consts  --      1.3819                 1.3754                 1.4204
 IR Inten    --     10.6024                 7.8960                 4.2008

                     22                     23                     24
                      A                      A                      A
 Frequencies --   1707.2031              2999.4944              3012.8405
 Red. masses --      4.3771                 1.0603                 1.0993
 Frc consts  --      7.5163                 5.6207                 5.8793
 IR Inten    --     17.7179                26.9076                14.6700

                     25                     26                     27
                      A                      A                      A
 Frequencies --   3033.6200              3092.9831              3096.4866
 Red. masses --      1.0351                 1.1021                 1.1013
 Frc consts  --      5.6125                 6.2118                 6.2214
 IR Inten    --     22.7474                31.9423                30.9073

                     28                     29                     30
                      A                      A                      A
 Frequencies --   3121.1100              3144.5065              3219.5807
 Red. masses --      1.0839                 1.0638                 1.1154
 Frc consts  --      6.2211                 6.1972                 6.8119
 IR Inten    --     22.5497                 4.6896                14.9044

 - Thermochemistry -
 -------------------
 Temperature   298.150 Kelvin.  Pressure   1.00000 Atm.
 Atom     1 has atomic number  6 and mass  12.00000

 Molecular mass:    56.06260 amu.
 Principal axes and moments of inertia in atomic units:
                           1         2         3
     Eigenvalues --   115.96545 326.81412 420.71563
           X            0.99998  -0.00549   0.00000
           Y            0.00549   0.99998  -0.00001
           Z           -0.00000   0.00001   1.00000
 This molecule is an asymmetric top.
 Rotational symmetry number  1.
 Rotational temperatures (Kelvin)      0.74689     0.26503     0.20587
 Rotational constants (GHZ):          15.56275     5.52223     4.28969
 Zero-point vibrational energy     284265.2 (Joules/Mol)
                                   67.94102 (Kcal/Mol)
 Warning -- explicit consideration of   5 degrees of freedom as
           vibrations may cause significant error
 Vibrational temperatures:    231.33   375.34   396.83   788.44   812.29
          (Kelvin)           1160.37  1206.70  1360.87  1439.14  1488.53
                             1492.42  1597.93  1651.41  1861.60  1922.46
                             1988.73  2032.35  2096.09  2124.10  2156.56
                             2171.28  2456.28  4315.60  4334.81  4364.70
                             4450.11  4455.15  4490.58  4524.24  4632.26

 Zero-point correction=                           0.108271 (Hartree/Particle)
 Thermal correction to Energy=                    0.113417
 Thermal correction to Enthalpy=                  0.114361
 Thermal correction to Gibbs Free Energy=         0.081055
 Sum of electronic and zero-point Energies=           -157.176652
 Sum of electronic and thermal Energies=              -157.171506
 Sum of electronic and thermal Enthalpies=            -157.170562
 Sum of electronic and thermal Free Energies=         -157.203868

                     E (Thermal)             CV                S
                      KCal/Mol        Cal/Mol-Kelvin    Cal/Mol-Kelvin
 Total                   71.170             17.654             70.099
 Electronic               0.000              0.000              0.000
 Translational            0.889              2.981             37.993
 Rotational               0.889              2.981             24.281
 Vibrational             69.393             11.692              7.825
 Vibration     1          0.622              1.890              2.541
 Vibration     2          0.669              1.744              1.656
 Vibration     3          0.677              1.718              1.560
 Vibration     4          0.903              1.144              0.548
 Vibration     5          0.920              1.108              0.515

 Optimization completed.
    -- Stationary point found.
 Normal termination of Gaussian DV at Mon May  4 17:05:58 2020.
