 ------------------------------------------------------------------
 #P ub3lyp def2tzvp pop=orbitals=20 integral=superfinegrid opt freq
 ------------------------------------------------------------------

 -----
 title
 -----
 Symbolic Z-matrix:
 Charge =  0 Multiplicity = 1

 SCF Done:  E(UB3LYP) =  -193.193837279     A.U. after   12 cycles
 SCF Done:  E(UB3LYP) =  -193.197808120     A.U. after   11 cycles
 SCF Done:  E(UB3LYP) =  -193.199355443     A.U. after   12 cycles
 SCF Done:  E(UB3LYP) =  -193.200051893     A.U. after   12 cycles
 SCF Done:  E(UB3LYP) =  -193.200108136     A.U. after   10 cycles
 SCF Done:  E(UB3LYP) =  -193.200116977     A.U. after    8 cycles
 SCF Done:  E(UB3LYP) =  -193.200120296     A.U. after    7 cycles
 SCF Done:  E(UB3LYP) =  -193.200125334     A.U. after    9 cycles
 SCF Done:  E(UB3LYP) =  -193.200126572     A.U. after    8 cycles
 SCF Done:  E(UB3LYP) =  -193.200126978     A.U. after    7 cycles
 Optimization completed.
    -- Stationary point found.
 Normal termination of Gaussian DV at Mon May  4 18:53:25 2020.

 --------------------------------------------------------------------
 #P Geom=AllCheck Guess=TCheck SCRF=Check GenChk UB3LYP/def2TZVP Freq
 --------------------------------------------------------------------

 Structure from the checkpoint file:  "propenol.chk"
 -----
 title
 -----
 Charge =  0 Multiplicity = 1

                         Standard orientation:
 ---------------------------------------------------------------------
 Center     Atomic      Atomic             Coordinates (Angstroms)
 Number     Number       Type             X           Y           Z
 ---------------------------------------------------------------------
      1          6           0        1.832007   -0.075034   -0.217920
      2          1           0        2.720926    0.542150   -0.191680
      3          1           0        1.937586   -1.065432   -0.646842
      4          6           0        0.670731    0.357203    0.253933
      5          1           0        0.584571    1.358477    0.665720
      6          6           0       -0.583959   -0.452995    0.285300
      7          1           0       -0.848291   -0.670194    1.329713
      8          8           0       -1.626743    0.301066   -0.336089
      9          1           0       -2.466519   -0.138980   -0.168570
     10          1           0       -0.427003   -1.409594   -0.227511
 ---------------------------------------------------------------------

 SCF Done:  E(UB3LYP) =  -193.200126978     A.U. after    1 cycles

 The electronic state is 1-A.
 Alpha  occ. eigenvalues --  -19.12820 -10.22442 -10.17717 -10.16982  -1.02422
 Alpha  occ. eigenvalues --   -0.78991  -0.68083  -0.56445  -0.51885  -0.48204
 Alpha  occ. eigenvalues --   -0.44734  -0.40737  -0.37603  -0.33936  -0.29140
 Alpha  occ. eigenvalues --   -0.26892
 Alpha virt. eigenvalues --   -0.00871   0.03543   0.06566   0.07436   0.09415
 Alpha virt. eigenvalues --    0.11899   0.13094   0.14270   0.17617   0.20989
 Alpha virt. eigenvalues --    0.21781   0.23560   0.26409   0.29428   0.30772

  Beta  occ. eigenvalues --  -19.12820 -10.22442 -10.17717 -10.16982  -1.02422
  Beta  occ. eigenvalues --   -0.78991  -0.68083  -0.56445  -0.51885  -0.48204
  Beta  occ. eigenvalues --   -0.44734  -0.40737  -0.37603  -0.33936  -0.29140
  Beta  occ. eigenvalues --   -0.26892
  Beta virt. eigenvalues --   -0.00871   0.03543   0.06566   0.07436   0.09415
  Beta virt. eigenvalues --    0.11899   0.13094   0.14270   0.17617   0.20989
  Beta virt. eigenvalues --    0.21781   0.23560   0.26409   0.29428   0.30772

 Mulliken charges and spin densities:
               1          2
     1  C   -0.258263   0.000000
     2  H    0.114298   0.000000
     3  H    0.107362  -0.000000
     4  C   -0.069616  -0.000000
     5  H    0.105285  -0.000000
     6  C   -0.012079   0.000000
     7  H    0.088749  -0.000000
     8  O   -0.448509  -0.000000
     9  H    0.294762  -0.000000
    10  H    0.078011  -0.000000
 Sum of Mulliken charges =   0.00000  -0.00000

 Dipole moment (field-independent basis, Debye):
    X=             -0.3954    Y=             -1.3110    Z=              0.9063  Tot=              1.6421
 Quadrupole moment (field-independent basis, Debye-Ang):
   XX=            -21.1199   YY=            -25.0267   ZZ=            -27.0512
   XY=              2.7694   XZ=             -1.8124   YZ=              1.3214

  Exact polarizability:      55.569      -1.311      37.376      -4.633       2.043      33.061
 Approx polarizability:      73.977      -5.338      52.311      -8.387       3.401      47.289

                      1                      2                      3
                      A                      A                      A
 Frequencies --    114.3805               242.9244               335.1039
 Red. masses --      2.7467                 1.0809                 2.1653
 Frc consts  --      0.0212                 0.0376                 0.1433
 IR Inten    --      1.7393               119.5860                10.2008

                      4                      5                      6
                      A                      A                      A
 Frequencies --    449.0091               657.4538               920.1735
 Red. masses --      2.1991                 1.6370                 1.8364
 Frc consts  --      0.2612                 0.4169                 0.9161
 IR Inten    --      3.5407                 6.0454                 1.5660

                      7                      8                      9
                      A                      A                      A
 Frequencies --    960.0885               971.3040              1033.5952
 Red. masses --      1.3037                 1.4284                 1.1471
 Frc consts  --      0.7080                 0.7940                 0.7220
 IR Inten    --     28.7045                30.7715                16.0842

                     10                     11                     12
                      A                      A                      A
 Frequencies --   1047.6815              1162.8958              1230.8787
 Red. masses --      5.9009                 1.6862                 1.0904
 Frc consts  --      3.8162                 1.3435                 0.9734
 IR Inten    --     94.1465                13.0344                51.4487

                     13                     14                     15
                      A                      A                      A
 Frequencies --   1276.5151              1320.1508              1423.4668
 Red. masses --      1.1879                 1.2583                 1.2763
 Frc consts  --      1.1404                 1.2921                 1.5237
 IR Inten    --     19.4546                 0.2999                 4.9568

                     16                     17                     18
                      A                      A                      A
 Frequencies --   1472.6224              1510.3766              1714.9425
 Red. masses --      1.2673                 1.1007                 4.6626
 Frc consts  --      1.6193                 1.4794                 8.0793
 IR Inten    --     13.5882                 1.5508                 2.5714

                     19                     20                     21
                      A                      A                      A
 Frequencies --   2968.2549              3007.6679              3133.6335
 Red. masses --      1.0614                 1.0991                 1.0585
 Frc consts  --      5.5096                 5.8581                 6.1243
 IR Inten    --     53.1860                43.9376                11.4063

                     22                     23                     24
                      A                      A                      A
 Frequencies --   3146.8711              3217.2855              3807.2337
 Red. masses --      1.0917                 1.1150                 1.0664
 Frc consts  --      6.3696                 6.8000                 9.1074
 IR Inten    --      5.9998                13.4171                23.9243

 - Thermochemistry -
 -------------------
 Temperature   298.150 Kelvin.  Pressure   1.00000 Atm.
 Atom     1 has atomic number  6 and mass  12.00000

 Molecular mass:    58.04186 amu.
 Principal axes and moments of inertia in atomic units:
                           1         2         3
     Eigenvalues --    64.54058 419.33772 436.19637
           X            0.99968   0.02025  -0.01546
           Y           -0.01693   0.98145   0.19097
           Z            0.01904  -0.19065   0.98147
 This molecule is an asymmetric top.
 Rotational symmetry number  1.
 Rotational temperatures (Kelvin)      1.34201     0.20655     0.19857
 Rotational constants (GHZ):          27.96289     4.30379     4.13745
 Zero-point vibrational energy     222053.9 (Joules/Mol)
                                   53.07215 (Kcal/Mol)
 Warning -- explicit consideration of   4 degrees of freedom as
           vibrations may cause significant error
 Vibrational temperatures:    164.57   349.51   482.14   646.02   945.93
          (Kelvin)           1323.92  1381.35  1397.49  1487.11  1507.38
                             1673.15  1770.96  1836.62  1899.40  2048.05
                             2118.78  2173.10  2467.42  4270.66  4327.36
                             4508.60  4527.65  4628.96  5477.76

 Zero-point correction=                           0.084576 (Hartree/Particle)
 Thermal correction to Energy=                    0.089659
 Thermal correction to Enthalpy=                  0.090603
 Thermal correction to Gibbs Free Energy=         0.057279
 Sum of electronic and zero-point Energies=           -193.115551
 Sum of electronic and thermal Energies=              -193.110468
 Sum of electronic and thermal Enthalpies=            -193.109524
 Sum of electronic and thermal Free Energies=         -193.142848

                     E (Thermal)             CV                S
                      KCal/Mol        Cal/Mol-Kelvin    Cal/Mol-Kelvin
 Total                   56.262             16.532             70.136
 Electronic               0.000              0.000              0.000
 Translational            0.889              2.981             38.096
 Rotational               0.889              2.981             23.983
 Vibrational             54.484             10.571              8.057
 Vibration     1          0.607              1.938              3.193
 Vibration     2          0.659              1.774              1.781
 Vibration     3          0.716              1.605              1.235
 Vibration     4          0.808              1.363              0.799

 Optimization completed.
    -- Stationary point found.
 Normal termination of Gaussian DV at Mon May  4 18:56:56 2020.
